Ca24 Ge24 Mo16 O96

160 atoms

4 atom types

0.000000000000000  12.737449000000000 xlo xhi
0.000000000000000  12.737449000000000 ylo yhi
0.000000000000000  12.737449000000000 zlo zhi
0.000000000000000  0.000000000000000  0.000000000000000 xy xz yz

Masses

1	40.078000000000003
2	72.640000000000001
3	95.939999999999998
4	15.999400000000000

Atoms

1	1	3.184362250000000 4.776543375000000 6.368724500000000 
2	1	9.553086750000000 1.592181125000000 6.368724500000000 
3	1	6.368724500000000 3.184362250000000 4.776543375000000 
4	1	6.368724500000000 9.553086750000000 1.592181125000000 
5	1	4.776543375000000 6.368724500000000 3.184362250000000 
6	1	7.960905625000000 0.000000000000000 3.184362250000000 
7	1	3.184362250000000 1.592181125000000 0.000000000000000 
8	1	9.553086750000000 4.776543375000000 0.000000000000000 
9	1	0.000000000000000 3.184362250000000 1.592181125000000 
10	1	0.000000000000000 9.553086750000000 4.776543375000000 
11	1	1.592181125000000 0.000000000000000 3.184362250000000 
12	1	11.145267875000000 6.368724500000000 3.184362250000000 
13	1	9.553086750000000 11.145267875000000 0.000000000000000 
14	1	3.184362250000000 7.960905625000000 0.000000000000000 
15	1	0.000000000000000 9.553086750000000 11.145267875000000 
16	1	0.000000000000000 3.184362250000000 7.960905625000000 
17	1	11.145267875000000 0.000000000000000 9.553086750000000 
18	1	1.592181125000000 6.368724500000000 9.553086750000000 
19	1	9.553086750000000 7.960905625000000 6.368724500000000 
20	1	3.184362250000000 11.145267875000000 6.368724500000000 
21	1	6.368724500000000 9.553086750000000 7.960905625000000 
22	1	6.368724500000000 3.184362250000000 11.145267875000000 
23	1	7.960905625000000 6.368724500000000 9.553086750000000 
24	1	4.776543375000000 0.000000000000000 9.553086750000000 
25	2	11.145267875000000 0.000000000000000 3.184362250000000 
26	2	7.960905625000000 6.368724500000000 3.184362250000000 
27	2	0.000000000000000 3.184362250000000 11.145267875000000 
28	2	9.553086750000000 4.776543375000000 6.368724500000000 
29	2	6.368724500000000 3.184362250000000 1.592181125000000 
30	2	9.553086750000000 7.960905625000000 0.000000000000000 
31	2	9.553086750000000 11.145267875000000 6.368724500000000 
32	2	9.553086750000000 1.592181125000000 0.000000000000000 
33	2	0.000000000000000 3.184362250000000 4.776543375000000 
34	2	6.368724500000000 3.184362250000000 7.960905625000000 
35	2	11.145267875000000 6.368724500000000 9.553086750000000 
36	2	7.960905625000000 0.000000000000000 9.553086750000000 
37	2	4.776543375000000 6.368724500000000 9.553086750000000 
38	2	1.592181125000000 0.000000000000000 9.553086750000000 
39	2	6.368724500000000 9.553086750000000 4.776543375000000 
40	2	3.184362250000000 11.145267875000000 0.000000000000000 
41	2	0.000000000000000 9.553086750000000 7.960905625000000 
42	2	3.184362250000000 1.592181125000000 6.368724500000000 
43	2	3.184362250000000 4.776543375000000 0.000000000000000 
44	2	3.184362250000000 7.960905625000000 6.368724500000000 
45	2	6.368724500000000 9.553086750000000 11.145267875000000 
46	2	0.000000000000000 9.553086750000000 1.592181125000000 
47	2	4.776543375000000 0.000000000000000 3.184362250000000 
48	2	1.592181125000000 6.368724500000000 3.184362250000000 
49	3	6.368724500000000 0.000000000000000 6.368724500000000 
50	3	3.184362250000000 3.184362250000000 3.184362250000000 
51	3	9.553086750000000 9.553086750000000 3.184362250000000 
52	3	9.553086750000000 3.184362250000000 9.553086750000000 
53	3	6.368724500000000 0.000000000000000 0.000000000000000 
54	3	0.000000000000000 0.000000000000000 6.368724500000000 
55	3	6.368724500000000 6.368724500000000 6.368724500000000 
56	3	9.553086750000000 3.184362250000000 3.184362250000000 
57	3	0.000000000000000 6.368724500000000 0.000000000000000 
58	3	9.553086750000000 9.553086750000000 9.553086750000000 
59	3	3.184362250000000 3.184362250000000 9.553086750000000 
60	3	3.184362250000000 9.553086750000000 3.184362250000000 
61	3	0.000000000000000 6.368724500000000 6.368724500000000 
62	3	6.368724500000000 6.368724500000000 0.000000000000000 
63	3	0.000000000000000 0.000000000000000 0.000000000000000 
64	3	3.184362250000000 9.553086750000000 9.553086750000000 
65	4	5.685653322477000 4.367747686794000 6.805899224577999 
66	4	6.805899224577999 7.051795677523000 2.000976813206000 
67	4	8.369701313205999 0.437174724578000 0.683071177523000 
68	4	7.051795677523000 2.000976813206000 6.805899224577999 
69	4	5.185339063206000 3.867433427523000 2.747187525422000 
70	4	5.931549775422000 0.683071177523000 4.367747686794000 
71	4	5.185339063206000 8.870015572477000 3.621536974578000 
72	4	8.369701313205999 12.300274275422000 5.685653322477000 
73	4	1.183385436794000 3.867433427523000 9.990261474577999 
74	4	9.990261474577999 1.183385436794000 3.867433427523000 
75	4	8.870015572477000 3.621536974578000 5.185339063206000 
76	4	10.236157927522999 3.621536974578000 7.552109936794000 
77	4	2.747187525422000 5.185339063206000 3.867433427523000 
78	4	3.867433427523000 2.747187525422000 5.185339063206000 
79	4	9.990261474577999 11.554063563205998 2.501291072477000 
80	4	8.870015572477000 9.115912025422000 1.183385436794000 
81	4	9.115912025422000 1.183385436794000 8.870015572477000 
82	4	7.051795677523000 10.736472186794000 12.300274275422000 
83	4	12.054377822477001 2.000976813206000 5.931549775422000 
84	4	5.185339063206000 2.501291072477000 9.115912025422000 
85	4	6.805899224577999 5.685653322477000 4.367747686794000 
86	4	10.736472186794000 12.300274275422000 7.051795677523000 
87	4	4.367747686794000 6.805899224577999 5.685653322477000 
88	4	7.552109936794000 2.501291072477000 2.747187525422000 
89	4	0.683071177523000 2.000976813206000 12.300274275422000 
90	4	12.300274275422000 12.054377822477001 4.367747686794000 
91	4	10.736472186794000 5.931549775422000 5.685653322477000 
92	4	12.054377822477001 4.367747686794000 12.300274275422000 
93	4	1.183385436794000 2.501291072477000 3.621536974578000 
94	4	0.437174724578000 5.685653322477000 2.000976813206000 
95	4	1.183385436794000 10.236157927522999 2.747187525422000 
96	4	10.736472186794000 6.805899224577999 0.683071177523000 
97	4	11.554063563205998 3.867433427523000 3.621536974578000 
98	4	2.000976813206000 12.300274275422000 0.683071177523000 
99	4	8.369701313205999 6.805899224577999 12.054377822477001 
100	4	6.805899224577999 0.683071177523000 10.736472186794000 
101	4	12.300274275422000 0.683071177523000 2.000976813206000 
102	4	7.051795677523000 4.367747686794000 0.437174724578000 
103	4	12.054377822477001 8.369701313205999 6.805899224577999 
104	4	9.990261474577999 5.185339063206000 10.236157927522999 
105	4	10.236157927522999 9.990261474577999 5.185339063206000 
106	4	9.115912025422000 7.552109936794000 3.867433427523000 
107	4	2.501291072477000 3.621536974578000 1.183385436794000 
108	4	3.621536974578000 1.183385436794000 2.501291072477000 
109	4	8.870015572477000 2.747187525422000 11.554063563205998 
110	4	10.236157927522999 2.747187525422000 1.183385436794000 
111	4	9.115912025422000 5.185339063206000 2.501291072477000 
112	4	12.300274275422000 5.685653322477000 8.369701313205999 
113	4	12.054377822477001 10.736472186794000 0.437174724578000 
114	4	0.437174724578000 0.683071177523000 8.369701313205999 
115	4	2.000976813206000 6.805899224577999 7.051795677523000 
116	4	0.683071177523000 8.369701313205999 0.437174724578000 
117	4	11.554063563205998 10.236157927522999 9.115912025422000 
118	4	12.300274275422000 7.051795677523000 10.736472186794000 
119	4	11.554063563205998 2.501291072477000 9.990261474577999 
120	4	2.000976813206000 5.931549775422000 12.054377822477001 
121	4	7.552109936794000 10.236157927522999 3.621536974578000 
122	4	3.621536974578000 7.552109936794000 10.236157927522999 
123	4	2.501291072477000 9.990261474577999 11.554063563205998 
124	4	3.867433427523000 9.990261474577999 1.183385436794000 
125	4	9.115912025422000 11.554063563205998 10.236157927522999 
126	4	10.236157927522999 9.115912025422000 11.554063563205998 
127	4	3.621536974578000 5.185339063206000 8.870015572477000 
128	4	2.501291072477000 2.747187525422000 7.552109936794000 
129	4	2.747187525422000 7.552109936794000 2.501291072477000 
130	4	0.683071177523000 4.367747686794000 5.931549775422000 
131	4	5.685653322477000 8.369701313205999 12.300274275422000 
132	4	11.554063563205998 8.870015572477000 2.747187525422000 
133	4	0.437174724578000 12.054377822477001 10.736472186794000 
134	4	4.367747686794000 5.931549775422000 0.683071177523000 
135	4	10.736472186794000 0.437174724578000 12.054377822477001 
136	4	1.183385436794000 8.870015572477000 9.115912025422000 
137	4	7.051795677523000 8.369701313205999 5.931549775422000 
138	4	5.931549775422000 5.685653322477000 10.736472186794000 
139	4	4.367747686794000 12.300274275422000 12.054377822477001 
140	4	5.685653322477000 10.736472186794000 5.931549775422000 
141	4	7.552109936794000 8.870015572477000 9.990261474577999 
142	4	6.805899224577999 12.054377822477001 8.369701313205999 
143	4	7.552109936794000 3.867433427523000 9.115912025422000 
144	4	4.367747686794000 0.437174724578000 7.051795677523000 
145	4	5.185339063206000 10.236157927522999 9.990261474577999 
146	4	8.369701313205999 5.931549775422000 7.051795677523000 
147	4	2.000976813206000 0.437174724578000 5.685653322477000 
148	4	0.437174724578000 7.051795677523000 4.367747686794000 
149	4	5.931549775422000 7.051795677523000 8.369701313205999 
150	4	0.683071177523000 10.736472186794000 6.805899224577999 
151	4	5.685653322477000 2.000976813206000 0.437174724578000 
152	4	3.621536974578000 11.554063563205998 3.867433427523000 
153	4	3.867433427523000 3.621536974578000 11.554063563205998 
154	4	2.747187525422000 1.183385436794000 10.236157927522999 
155	4	8.870015572477000 9.990261474577999 7.552109936794000 
156	4	9.990261474577999 7.552109936794000 8.870015572477000 
157	4	2.501291072477000 9.115912025422000 5.185339063206000 
158	4	3.867433427523000 9.115912025422000 7.552109936794000 
159	4	2.747187525422000 11.554063563205998 8.870015572477000 
160	4	5.931549775422000 12.054377822477001 2.000976813206000 
