Cr2                                     

53 atoms

2 atom types

0.000000  9.519423 xlo xhi
0.000000  9.520234 ylo yhi
0.000000  9.519041 zlo zhi
0.000226  -0.000048  0.000016 xy xz yz

Masses

1	183.839996
2	95.940002

Atoms

1	1	6.350869 0.005401 0.001037 
2	1	6.347071 0.006135 3.172514 
3	1	0.004263 0.003376 6.346920 
4	1	4.755207 1.593625 7.934639 
5	1	7.941698 1.594651 4.750893 
6	1	6.348161 0.008348 6.340905 
7	1	1.593382 7.965529 1.588116 
8	1	4.761898 4.759156 1.584957 
9	1	7.937209 4.757270 1.586080 
10	1	7.939178 7.938861 1.585852 
11	1	4.756659 4.755476 7.937784 
12	1	7.935477 4.758705 7.934481 
13	1	0.018403 0.019780 0.007423 
14	1	0.018868 3.162986 0.007811 
15	1	3.171715 3.167238 3.162017 
16	1	1.588374 1.587759 4.730155 
17	1	0.008007 3.177651 6.343716 
18	1	7.937114 1.594041 7.933429 
19	1	0.007350 6.350243 9.517526 
20	1	0.005678 6.346602 3.172582 
21	1	3.179271 6.346493 3.175137 
22	1	4.757057 7.939039 1.584304 
23	1	1.592090 7.945076 4.752339 
24	1	0.012036 6.348270 6.343581 
25	1	3.170477 6.348237 6.344635 
26	1	4.755556 7.941097 7.935956 
27	2	0.020786 3.168936 3.158993 
28	2	3.166713 0.012542 0.005647 
29	2	3.174615 0.019437 3.162065 
30	2	3.167072 3.168310 0.011374 
31	2	7.963157 1.590932 1.589010 
32	2	6.348137 3.175486 3.172022 
33	2	1.591316 4.741542 1.584768 
34	2	6.351283 6.349107 3.167422 
35	2	1.592383 4.758054 4.755757 
36	2	1.591352 7.940245 7.934443 
37	2	4.758074 7.942025 4.753773 
38	2	7.939048 7.940362 4.752792 
39	2	0.012343 0.012366 3.158855 
40	2	4.735458 1.589360 1.582854 
41	2	6.349419 3.174711 0.001839 
42	2	1.595009 1.591485 7.951837 
43	2	3.177785 0.005047 6.342658 
44	2	3.178022 3.176674 6.341130 
45	2	4.758401 1.594225 4.755814 
46	2	6.348459 3.169929 6.343000 
47	2	3.176129 6.349046 9.518136 
48	2	6.348786 6.348199 0.005526 
49	2	1.592337 4.758102 7.934671 
50	2	7.938614 4.757573 4.751123 
51	2	6.348369 6.347364 6.344728 
52	2	7.938039 7.939224 7.932988 
53	2	4.761867 4.758305 4.754887 
