Ni4

4 atoms

1 atom types

0.000000  3.508036 xlo xhi
0.000000  3.508036 ylo yhi
0.000000  3.508036 zlo zhi
0.000000  0.000000  0.000000 xy xz yz

Masses

1	58.693401

Atoms

1	1	0.000000 0.000000 0.000000 
2	1	0.000000 1.754018 1.754018 
3	1	1.754018 0.000000 1.754018 
4	1	1.754018 1.754018 0.000000 
