Ca24 Ge24 Mo16 O96

18 atoms

4 atom types

0.000000  12.737449 xlo xhi
0.000000  12.737449 ylo yhi
0.000000  12.737449 zlo zhi
0.000000  0.000000  0.000000 xy xz yz

Masses

1	40.077999
2	72.639999
3	95.940002
4	15.999400

Atoms

1	1	3.184362 1.592181 0.000000 
2	1	1.592181 0.000000 3.184362 
3	1	4.776543 0.000000 9.553086 
4	2	1.592181 0.000000 9.553086 
5	2	3.184362 1.592181 6.368724 
6	2	4.776543 0.000000 3.184362 
7	3	0.000000 0.000000 6.368724 
8	3	0.000000 0.000000 0.000000 
9	4	3.867434 2.747188 5.185339 
10	4	5.185339 2.501291 9.115911 
11	4	0.683071 2.000977 12.300274 
12	4	1.183385 2.501291 3.621537 
13	4	3.621537 1.183385 2.501291 
14	4	0.437175 0.683071 8.369701 
15	4	2.501291 2.747188 7.552110 
16	4	4.367748 0.437175 7.051795 
17	4	2.000977 0.437175 5.685653 
18	4	2.747188 1.183385 10.236157 
