Cr2

5 atoms

1 atom types

0.000000  4.029976 xlo xhi
0.000000  4.029975 ylo yhi
0.000000  4.935692 zlo zhi
-2.849623  0.000000  0.000000 xy xz yz

Masses

1	51.996101

Atoms

1	1	2.247427 -0.602196 -0.822615 
2	1	1.645231 1.645231 0.822615 
3	1	0.000000 0.000000 0.000000 
4	1	0.000000 0.000000 2.467846 
5	1	2.247427 -0.602196 1.645231 
