Ga2 N2

4 atoms

2 atom types

0.000000  3.216290 xlo xhi
0.000000  3.216290 ylo yhi
0.000000  5.239962 zlo zhi
-1.608145  0.000000  0.000000 xy xz yz

Masses

1	69.723000
2	14.006700

Atoms

1	1	-0.000002 1.856927 2.624592 
2	1	1.608147 0.928462 0.004611 
3	2	-0.000002 1.856927 0.650384 
4	2	1.608147 0.928462 3.270365 
