Ca24 Ge24 Mo16 O96

160 atoms

4 atom types

0.000000  12.737449 xlo xhi
0.000000  12.737449 ylo yhi
0.000000  12.737449 zlo zhi
0.000000  0.000000  0.000000 xy xz yz

Masses

1	40.077999
2	72.639999
3	95.940002
4	15.999400

Atoms

1	1	3.184362 4.776543 6.368724 
2	1	9.553086 1.592181 6.368724 
3	1	6.368724 3.184362 4.776543 
4	1	6.368724 9.553086 1.592181 
5	1	4.776543 6.368724 3.184362 
6	1	7.960906 0.000000 3.184362 
7	1	3.184362 1.592181 0.000000 
8	1	9.553086 4.776543 0.000000 
9	1	0.000000 3.184362 1.592181 
10	1	0.000000 9.553086 4.776543 
11	1	1.592181 0.000000 3.184362 
12	1	11.145267 6.368724 3.184362 
13	1	9.553086 11.145267 0.000000 
14	1	3.184362 7.960906 0.000000 
15	1	0.000000 9.553086 11.145267 
16	1	0.000000 3.184362 7.960906 
17	1	11.145267 0.000000 9.553086 
18	1	1.592181 6.368724 9.553086 
19	1	9.553086 7.960906 6.368724 
20	1	3.184362 11.145267 6.368724 
21	1	6.368724 9.553086 7.960906 
22	1	6.368724 3.184362 11.145267 
23	1	7.960906 6.368724 9.553086 
24	1	4.776543 0.000000 9.553086 
25	2	11.145267 0.000000 3.184362 
26	2	7.960906 6.368724 3.184362 
27	2	0.000000 3.184362 11.145267 
28	2	9.553086 4.776543 6.368724 
29	2	6.368724 3.184362 1.592181 
30	2	9.553086 7.960906 0.000000 
31	2	9.553086 11.145267 6.368724 
32	2	9.553086 1.592181 0.000000 
33	2	0.000000 3.184362 4.776543 
34	2	6.368724 3.184362 7.960906 
35	2	11.145267 6.368724 9.553086 
36	2	7.960906 0.000000 9.553086 
37	2	4.776543 6.368724 9.553086 
38	2	1.592181 0.000000 9.553086 
39	2	6.368724 9.553086 4.776543 
40	2	3.184362 11.145267 0.000000 
41	2	0.000000 9.553086 7.960906 
42	2	3.184362 1.592181 6.368724 
43	2	3.184362 4.776543 0.000000 
44	2	3.184362 7.960906 6.368724 
45	2	6.368724 9.553086 11.145267 
46	2	0.000000 9.553086 1.592181 
47	2	4.776543 0.000000 3.184362 
48	2	1.592181 6.368724 3.184362 
49	3	6.368724 0.000000 6.368724 
50	3	3.184362 3.184362 3.184362 
51	3	9.553086 9.553086 3.184362 
52	3	9.553086 3.184362 9.553086 
53	3	6.368724 0.000000 0.000000 
54	3	0.000000 0.000000 6.368724 
55	3	6.368724 6.368724 6.368724 
56	3	9.553086 3.184362 3.184362 
57	3	0.000000 6.368724 0.000000 
58	3	9.553086 9.553086 9.553086 
59	3	3.184362 3.184362 9.553086 
60	3	3.184362 9.553086 3.184362 
61	3	0.000000 6.368724 6.368724 
62	3	6.368724 6.368724 0.000000 
63	3	0.000000 0.000000 0.000000 
64	3	3.184362 9.553086 9.553086 
65	4	5.685653 4.367748 6.805899 
66	4	6.805899 7.051795 2.000977 
67	4	8.369701 0.437175 0.683071 
68	4	7.051795 2.000977 6.805899 
69	4	5.185339 3.867434 2.747188 
70	4	5.931550 0.683071 4.367748 
71	4	5.185339 8.870015 3.621537 
72	4	8.369701 12.300274 5.685653 
73	4	1.183385 3.867434 9.990261 
74	4	9.990261 1.183385 3.867434 
75	4	8.870015 3.621537 5.185339 
76	4	10.236157 3.621537 7.552110 
77	4	2.747188 5.185339 3.867434 
78	4	3.867434 2.747188 5.185339 
79	4	9.990261 11.554063 2.501291 
80	4	8.870015 9.115911 1.183385 
81	4	9.115911 1.183385 8.870015 
82	4	7.051795 10.736472 12.300274 
83	4	12.054378 2.000977 5.931550 
84	4	5.185339 2.501291 9.115911 
85	4	6.805899 5.685653 4.367748 
86	4	10.736472 12.300274 7.051795 
87	4	4.367748 6.805899 5.685653 
88	4	7.552110 2.501291 2.747188 
89	4	0.683071 2.000977 12.300274 
90	4	12.300274 12.054378 4.367748 
91	4	10.736472 5.931550 5.685653 
92	4	12.054378 4.367748 12.300274 
93	4	1.183385 2.501291 3.621537 
94	4	0.437175 5.685653 2.000977 
95	4	1.183385 10.236157 2.747188 
96	4	10.736472 6.805899 0.683071 
97	4	11.554063 3.867434 3.621537 
98	4	2.000977 12.300274 0.683071 
99	4	8.369701 6.805899 12.054378 
100	4	6.805899 0.683071 10.736472 
101	4	12.300274 0.683071 2.000977 
102	4	7.051795 4.367748 0.437175 
103	4	12.054378 8.369701 6.805899 
104	4	9.990261 5.185339 10.236157 
105	4	10.236157 9.990261 5.185339 
106	4	9.115911 7.552110 3.867434 
107	4	2.501291 3.621537 1.183385 
108	4	3.621537 1.183385 2.501291 
109	4	8.870015 2.747188 11.554063 
110	4	10.236157 2.747188 1.183385 
111	4	9.115911 5.185339 2.501291 
112	4	12.300274 5.685653 8.369701 
113	4	12.054378 10.736472 0.437175 
114	4	0.437175 0.683071 8.369701 
115	4	2.000977 6.805899 7.051795 
116	4	0.683071 8.369701 0.437175 
117	4	11.554063 10.236157 9.115911 
118	4	12.300274 7.051795 10.736472 
119	4	11.554063 2.501291 9.990261 
120	4	2.000977 5.931550 12.054378 
121	4	7.552110 10.236157 3.621537 
122	4	3.621537 7.552110 10.236157 
123	4	2.501291 9.990261 11.554063 
124	4	3.867434 9.990261 1.183385 
125	4	9.115911 11.554063 10.236157 
126	4	10.236157 9.115911 11.554063 
127	4	3.621537 5.185339 8.870015 
128	4	2.501291 2.747188 7.552110 
129	4	2.747188 7.552110 2.501291 
130	4	0.683071 4.367748 5.931550 
131	4	5.685653 8.369701 12.300274 
132	4	11.554063 8.870015 2.747188 
133	4	0.437175 12.054378 10.736472 
134	4	4.367748 5.931550 0.683071 
135	4	10.736472 0.437175 12.054378 
136	4	1.183385 8.870015 9.115911 
137	4	7.051795 8.369701 5.931550 
138	4	5.931550 5.685653 10.736472 
139	4	4.367748 12.300274 12.054378 
140	4	5.685653 10.736472 5.931550 
141	4	7.552110 8.870015 9.990261 
142	4	6.805899 12.054378 8.369701 
143	4	7.552110 3.867434 9.115911 
144	4	4.367748 0.437175 7.051795 
145	4	5.185339 10.236157 9.990261 
146	4	8.369701 5.931550 7.051795 
147	4	2.000977 0.437175 5.685653 
148	4	0.437175 7.051795 4.367748 
149	4	5.931550 7.051795 8.369701 
150	4	0.683071 10.736472 6.805899 
151	4	5.685653 2.000977 0.437175 
152	4	3.621537 11.554063 3.867434 
153	4	3.867434 3.621537 11.554063 
154	4	2.747188 1.183385 10.236157 
155	4	8.870015 9.990261 7.552110 
156	4	9.990261 7.552110 8.870015 
157	4	2.501291 9.115911 5.185339 
158	4	3.867434 9.115911 7.552110 
159	4	2.747188 11.554063 8.870015 
160	4	5.931550 12.054378 2.000977 
